source 'https://rubygems.org'

gem 'rails', '3.2.13'

# Bundle edge Rails instead:
# gem 'rails', :git => 'git://github.com/rails/rails.git'

# changed to work with Heroku Postgres
gem 'pg'

# using deivse for user auth
gem 'devise', '2.2.4'
gem 'devise_security_extension'

# Gems used only for assets and not required
# in production environments by default.
group :assets do
  gem 'sass-rails'
  gem 'bootstrap-sass'
  gem 'coffee-rails', '~> 3.2.1'

  # See https://github.com/sstephenson/execjs#readme for more supported runtimes
  gem 'therubyracer', :platforms => :ruby

  gem 'uglifier', '>= 1.0.3'
end

gem 'jquery-rails'

gem 'redcarpet'

gem 'eventmachine'
gem 'amqp'
# gem 'beefcake', :git => 'git://github.com/bmizerany/beefcake.git'
gem 'ruby_protobuf'

gem 'thin'

gem 'omniauth'
gem 'omniauth-github'

# Forces ruby to know location of SSL certificates
gem 'certified'

# pusher for notifcations
gem 'pusher'
gem 'sync'
gem 'octokit', :git => 'git://github.com/octokit/octokit.rb.git'

gem 'nested_form'

# To use ActiveModel has_secure_password
# gem 'bcrypt-ruby', '~> 3.0.0'

# To use Jbuilder templates for JSON
# gem 'jbuilder'

# Use unicorn as the app server
# gem 'unicorn'

# Deploy with Capistrano
# gem 'capistrano'

# To use debugger
# gem 'debugger'
